<VTKFile type="UnstructuredGrid" version="1.0" byte_order="LittleEndian" header_type="UInt64">
  <UnstructuredGrid>
    <Piece NumberOfPoints="4585" NumberOfCells="1440">
      <PointData Scalars="p_c">
        <DataArray type="Float64" Name="p_LR" format="ascii" RangeMin="90090" RangeMax="99900">
          99900 99900 99900 99900 99900 99900
          99900 99900 99900 99900 99900 99900
          99900 99818.25 99818.25 99818.25 99818.25 99818.25
          99818.25 99818.25 99818.25 99818.25 99818.25 99818.25
          99818.25 99818.25 99736.5 99736.5 99736.5 99736.5
          99736.5 99736.5 99736.5 99736.5 99736.5 99736.5
          99736.5 99736.5 99736.5 99654.75 99654.75 99654.75
          99654.75 99654.75 99654.75 99654.75 99654.75 99654.75
          99654.75 99654.75 99654.75 99654.75 99573 99573
          99573 99573 99573 99573 99573 99573
          99573 99573 99573 99573 99573 99491.25
          99491.25 99491.25 99491.25 99491.25 99491.25 99491.25
          99491.25 99491.25 99491.25 99491.25 99491.25 99491.25
          99409.5 99409.5 99409.5 99409.5 99409.5 99409.5
          99409.5 99409.5 99409.5 99409.5 99409.5 99409.5
          99409.5 99327.75 99327.75 99327.75 99327.75 99327.75
          99327.75 99327.75 99327.75 99327.75 99327.75 99327.75
          99327.75 99327.75 99246 99246 99246 99246
          99246 99246 99246 99246 99246 99246
          99246 99246 99246 99164.25 99164.25 99164.25
          99164.25 99164.25 99164.25 99164.25 99164.25 99164.25
          99164.25 99164.25 99164.25 99164.25 99082.5 99082.5
          99082.5 99082.5 99082.5 99082.5 99082.5 99082.5
          99082.5 99082.5 99082.5 99082.5 99082.5 99000.75
          99000.75 99000.75 99000.75 99000.75 99000.75 99000.75
          99000.75 99000.75 99000.75 99000.75 99000.75 99000.75
          98919 98919 98919 98919 98919 98919
          98919 98919 98919 98919 98919 98919
          98919 98837.25 98837.25 98837.25 98837.25 98837.25
          98837.25 98837.25 98837.25 98837.25 98837.25 98837.25
          98837.25 98837.25 98755.5 98755.5 98755.5 98755.5
          98755.5 98755.5 98755.5 98755.5 98755.5 98755.5
          98755.5 98755.5 98755.5 98673.75 98673.75 98673.75
          98673.75 98673.75 98673.75 98673.75 98673.75 98673.75
          98673.75 98673.75 98673.75 98673.75 98592 98592
          98592 98592 98592 98592 98592 98592
          98592 98592 98592 98592 98592 98510.25
          98510.25 98510.25 98510.25 98510.25 98510.25 98510.25
          98510.25 98510.25 98510.25 98510.25 98510.25 98510.25
          98428.5 98428.5 98428.5 98428.5 98428.5 98428.5
          98428.5 98428.5 98428.5 98428.5 98428.5 98428.5
          98428.5 98346.75 98346.75 98346.75 98346.75 98346.75
          98346.75 98346.75 98346.75 98346.75 98346.75 98346.75
          98346.75 98346.75 98265 98265 98265 98265
          98265 98265 98265 98265 98265 98265
          98265 98265 98265 98183.25 98183.25 98183.25
          98183.25 98183.25 98183.25 98183.25 98183.25 98183.25
          98183.25 98183.25 98183.25 98183.25 98101.5 98101.5
          98101.5 98101.5 98101.5 98101.5 98101.5 98101.5
          98101.5 98101.5 98101.5 98101.5 98101.5 98019.75
          98019.75 98019.75 98019.75 98019.75 98019.75 98019.75
          98019.75 98019.75 98019.75 98019.75 98019.75 98019.75
          97938 97938 97938 97938 97938 97938
          97938 97938 97938 97938 97938 97938
          97938 97856.25 97856.25 97856.25 97856.25 97856.25
          97856.25 97856.25 97856.25 97856.25 97856.25 97856.25
          97856.25 97856.25 97774.5 97774.5 97774.5 97774.5
          97774.5 97774.5 97774.5 97774.5 97774.5 97774.5
          97774.5 97774.5 97774.5 97692.75 97692.75 97692.75
          97692.75 97692.75 97692.75 97692.75 97692.75 97692.75
          97692.75 97692.75 97692.75 97692.75 97611 97611
          97611 97611 97611 97611 97611 97611
          97611 97611 97611 97611 97611 97529.25
          97529.25 97529.25 97529.25 97529.25 97529.25 97529.25
          97529.25 97529.25 97529.25 97529.25 97529.25 97529.25
          97447.5 97447.5 97447.5 97447.5 97447.5 97447.5
          97447.5 97447.5 97447.5 97447.5 97447.5 97447.5
          97447.5 97365.75 97365.75 97365.75 97365.75 97365.75
          97365.75 97365.75 97365.75 97365.75 97365.75 97365.75
          97365.75 97365.75 97284 97284 97284 97284
          97284 97284 97284 97284 97284 97284
          97284 97284 97284 97202.25 97202.25 97202.25
          97202.25 97202.25 97202.25 97202.25 97202.25 97202.25
          97202.25 97202.25 97202.25 97202.25 97120.5 97120.5
          97120.5 97120.5 97120.5 97120.5 97120.5 97120.5
          97120.5 97120.5 97120.5 97120.5 97120.5 97038.75
          97038.75 97038.75 97038.75 97038.75 97038.75 97038.75
          97038.75 97038.75 97038.75 97038.75 97038.75 97038.75
          96957 96957 96957 96957 96957 96957
          96957 96957 96957 96957 96957 96957
          96957 96875.25 96875.25 96875.25 96875.25 96875.25
          96875.25 96875.25 96875.25 96875.25 96875.25 96875.25
          96875.25 96875.25 96793.5 96793.5 96793.5 96793.5
          96793.5 96793.5 96793.5 96793.5 96793.5 96793.5
          96793.5 96793.5 96793.5 96711.75 96711.75 96711.75
          96711.75 96711.75 96711.75 96711.75 96711.75 96711.75
          96711.75 96711.75 96711.75 96711.75 96630 96630
          96630 96630 96630 96630 96630 96630
          96630 96630 96630 96630 96630 96548.25
          96548.25 96548.25 96548.25 96548.25 96548.25 96548.25
          96548.25 96548.25 96548.25 96548.25 96548.25 96548.25
          96466.5 96466.5 96466.5 96466.5 96466.5 96466.5
          96466.5 96466.5 96466.5 96466.5 96466.5 96466.5
          96466.5 96384.75 96384.75 96384.75 96384.75 96384.75
          96384.75 96384.75 96384.75 96384.75 96384.75 96384.75
          96384.75 96384.75 96303 96303 96303 96303
          96303 96303 96303 96303 96303 96303
          96303 96303 96303 96221.25 96221.25 96221.25
          96221.25 96221.25 96221.25 96221.25 96221.25 96221.25
          96221.25 96221.25 96221.25 96221.25 96139.5 96139.5
          96139.5 96139.5 96139.5 96139.5 96139.5 96139.5
          96139.5 96139.5 96139.5 96139.5 96139.5 96057.75
          96057.75 96057.75 96057.75 96057.75 96057.75 96057.75
          96057.75 96057.75 96057.75 96057.75 96057.75 96057.75
          95976 95976 95976 95976 95976 95976
          95976 95976 95976 95976 95976 95976
          95976 95894.25 95894.25 95894.25 95894.25 95894.25
          95894.25 95894.25 95894.25 95894.25 95894.25 95894.25
          95894.25 95894.25 95812.5 95812.5 95812.5 95812.5
          95812.5 95812.5 95812.5 95812.5 95812.5 95812.5
          95812.5 95812.5 95812.5 95730.75 95730.75 95730.75
          95730.75 95730.75 95730.75 95730.75 95730.75 95730.75
          95730.75 95730.75 95730.75 95730.75 95649 95649
          95649 95649 95649 95649 95649 95649
          95649 95649 95649 95649 95649 95567.25
          95567.25 95567.25 95567.25 95567.25 95567.25 95567.25
          95567.25 95567.25 95567.25 95567.25 95567.25 95567.25
          95485.5 95485.5 95485.5 95485.5 95485.5 95485.5
          95485.5 95485.5 95485.5 95485.5 95485.5 95485.5
          95485.5 95403.75 95403.75 95403.75 95403.75 95403.75
          95403.75 95403.75 95403.75 95403.75 95403.75 95403.75
          95403.75 95403.75 95322 95322 95322 95322
          95322 95322 95322 95322 95322 95322
          95322 95322 95322 95240.25 95240.25 95240.25
          95240.25 95240.25 95240.25 95240.25 95240.25 95240.25
          95240.25 95240.25 95240.25 95240.25 95158.5 95158.5
          95158.5 95158.5 95158.5 95158.5 95158.5 95158.5
          95158.5 95158.5 95158.5 95158.5 95158.5 95076.75
          95076.75 95076.75 95076.75 95076.75 95076.75 95076.75
          95076.75 95076.75 95076.75 95076.75 95076.75 95076.75
          94995 94995 94995 94995 94995 94995
          94995 94995 94995 94995 94995 94995
          94995 94913.25 94913.25 94913.25 94913.25 94913.25
          94913.25 94913.25 94913.25 94913.25 94913.25 94913.25
          94913.25 94913.25 94831.5 94831.5 94831.5 94831.5
          94831.5 94831.5 94831.5 94831.5 94831.5 94831.5
          94831.5 94831.5 94831.5 94749.75 94749.75 94749.75
          94749.75 94749.75 94749.75 94749.75 94749.75 94749.75
          94749.75 94749.75 94749.75 94749.75 94668 94668
          94668 94668 94668 94668 94668 94668
          94668 94668 94668 94668 94668 94586.25
          94586.25 94586.25 94586.25 94586.25 94586.25 94586.25
          94586.25 94586.25 94586.25 94586.25 94586.25 94586.25
          94504.5 94504.5 94504.5 94504.5 94504.5 94504.5
          94504.5 94504.5 94504.5 94504.5 94504.5 94504.5
          94504.5 94422.75 94422.75 94422.75 94422.75 94422.75
          94422.75 94422.75 94422.75 94422.75 94422.75 94422.75
          94422.75 94422.75 94341 94341 94341 94341
          94341 94341 94341 94341 94341 94341
          94341 94341 94341 94259.25 94259.25 94259.25
          94259.25 94259.25 94259.25 94259.25 94259.25 94259.25
          94259.25 94259.25 94259.25 94259.25 94177.5 94177.5
          94177.5 94177.5 94177.5 94177.5 94177.5 94177.5
          94177.5 94177.5 94177.5 94177.5 94177.5 94095.75
          94095.75 94095.75 94095.75 94095.75 94095.75 94095.75
          94095.75 94095.75 94095.75 94095.75 94095.75 94095.75
          94014 94014 94014 94014 94014 94014
          94014 94014 94014 94014 94014 94014
          94014 93932.25 93932.25 93932.25 93932.25 93932.25
          93932.25 93932.25 93932.25 93932.25 93932.25 93932.25
          93932.25 93932.25 93850.5 93850.5 93850.5 93850.5
          93850.5 93850.5 93850.5 93850.5 93850.5 93850.5
          93850.5 93850.5 93850.5 93768.75 93768.75 93768.75
          93768.75 93768.75 93768.75 93768.75 93768.75 93768.75
          93768.75 93768.75 93768.75 93768.75 93687 93687
          93687 93687 93687 93687 93687 93687
          93687 93687 93687 93687 93687 93605.25
          93605.25 93605.25 93605.25 93605.25 93605.25 93605.25
          93605.25 93605.25 93605.25 93605.25 93605.25 93605.25
          93523.5 93523.5 93523.5 93523.5 93523.5 93523.5
          93523.5 93523.5 93523.5 93523.5 93523.5 93523.5
          93523.5 93441.75 93441.75 93441.75 93441.75 93441.75
          93441.75 93441.75 93441.75 93441.75 93441.75 93441.75
          93441.75 93441.75 93360 93360 93360 93360
          93360 93360 93360 93360 93360 93360
          93360 93360 93360 93278.25 93278.25 93278.25
          93278.25 93278.25 93278.25 93278.25 93278.25 93278.25
          93278.25 93278.25 93278.25 93278.25 93196.5 93196.5
          93196.5 93196.5 93196.5 93196.5 93196.5 93196.5
          93196.5 93196.5 93196.5 93196.5 93196.5 93114.75
          93114.75 93114.75 93114.75 93114.75 93114.75 93114.75
          93114.75 93114.75 93114.75 93114.75 93114.75 93114.75
          93033 93033 93033 93033 93033 93033
          93033 93033 93033 93033 93033 93033
          93033 92951.25 92951.25 92951.25 92951.25 92951.25
          92951.25 92951.25 92951.25 92951.25 92951.25 92951.25
          92951.25 92951.25 92869.5 92869.5 92869.5 92869.5
          92869.5 92869.5 92869.5 92869.5 92869.5 92869.5
          92869.5 92869.5 92869.5 92787.75 92787.75 92787.75
          92787.75 92787.75 92787.75 92787.75 92787.75 92787.75
          92787.75 92787.75 92787.75 92787.75 92706 92706
          92706 92706 92706 92706 92706 92706
          92706 92706 92706 92706 92706 92624.25
          92624.25 92624.25 92624.25 92624.25 92624.25 92624.25
          92624.25 92624.25 92624.25 92624.25 92624.25 92624.25
          92542.5 92542.5 92542.5 92542.5 92542.5 92542.5
          92542.5 92542.5 92542.5 92542.5 92542.5 92542.5
          92542.5 92460.75 92460.75 92460.75 92460.75 92460.75
          92460.75 92460.75 92460.75 92460.75 92460.75 92460.75
          92460.75 92460.75 92379 92379 92379 92379
          92379 92379 92379 92379 92379 92379
          92379 92379 92379 92297.25 92297.25 92297.25
          92297.25 92297.25 92297.25 92297.25 92297.25 92297.25
          92297.25 92297.25 92297.25 92297.25 92215.5 92215.5
          92215.5 92215.5 92215.5 92215.5 92215.5 92215.5
          92215.5 92215.5 92215.5 92215.5 92215.5 92133.75
          92133.75 92133.75 92133.75 92133.75 92133.75 92133.75
          92133.75 92133.75 92133.75 92133.75 92133.75 92133.75
          92052 92052 92052 92052 92052 92052
          92052 92052 92052 92052 92052 92052
          92052 91970.25 91970.25 91970.25 91970.25 91970.25
          91970.25 91970.25 91970.25 91970.25 91970.25 91970.25
          91970.25 91970.25 91888.5 91888.5 91888.5 91888.5
          91888.5 91888.5 91888.5 91888.5 91888.5 91888.5
          91888.5 91888.5 91888.5 91806.75 91806.75 91806.75
          91806.75 91806.75 91806.75 91806.75 91806.75 91806.75
          91806.75 91806.75 91806.75 91806.75 91725 91725
          91725 91725 91725 91725 91725 91725
          91725 91725 91725 91725 91725 91643.25
          91643.25 91643.25 91643.25 91643.25 91643.25 91643.25
          91643.25 91643.25 91643.25 91643.25 91643.25 91643.25
          91561.5 91561.5 91561.5 91561.5 91561.5 91561.5
          91561.5 91561.5 91561.5 91561.5 91561.5 91561.5
          91561.5 91479.75 91479.75 91479.75 91479.75 91479.75
          91479.75 91479.75 91479.75 91479.75 91479.75 91479.75
          91479.75 91479.75 91398 91398 91398 91398
          91398 91398 91398 91398 91398 91398
          91398 91398 91398 91316.25 91316.25 91316.25
          91316.25 91316.25 91316.25 91316.25 91316.25 91316.25
          91316.25 91316.25 91316.25 91316.25 91234.5 91234.5
          91234.5 91234.5 91234.5 91234.5 91234.5 91234.5
          91234.5 91234.5 91234.5 91234.5 91234.5 91152.75
          91152.75 91152.75 91152.75 91152.75 91152.75 91152.75
          91152.75 91152.75 91152.75 91152.75 91152.75 91152.75
          91071 91071 91071 91071 91071 91071
          91071 91071 91071 91071 91071 91071
          91071 90989.25 90989.25 90989.25 90989.25 90989.25
          90989.25 90989.25 90989.25 90989.25 90989.25 90989.25
          90989.25 90989.25 90907.5 90907.5 90907.5 90907.5
          90907.5 90907.5 90907.5 90907.5 90907.5 90907.5
          90907.5 90907.5 90907.5 90825.75 90825.75 90825.75
          90825.75 90825.75 90825.75 90825.75 90825.75 90825.75
          90825.75 90825.75 90825.75 90825.75 90744 90744
          90744 90744 90744 90744 90744 90744
          90744 90744 90744 90744 90744 90662.25
          90662.25 90662.25 90662.25 90662.25 90662.25 90662.25
          90662.25 90662.25 90662.25 90662.25 90662.25 90662.25
          90580.5 90580.5 90580.5 90580.5 90580.5 90580.5
          90580.5 90580.5 90580.5 90580.5 90580.5 90580.5
          90580.5 90498.75 90498.75 90498.75 90498.75 90498.75
          90498.75 90498.75 90498.75 90498.75 90498.75 90498.75
          90498.75 90498.75 90417 90417 90417 90417
          90417 90417 90417 90417 90417 90417
          90417 90417 90417 90335.25 90335.25 90335.25
          90335.25 90335.25 90335.25 90335.25 90335.25 90335.25
          90335.25 90335.25 90335.25 90335.25 90253.5 90253.5
          90253.5 90253.5 90253.5 90253.5 90253.5 90253.5
          90253.5 90253.5 90253.5 90253.5 90253.5 90171.75
          90171.75 90171.75 90171.75 90171.75 90171.75 90171.75
          90171.75 90171.75 90171.75 90171.75 90171.75 90171.75
          90090 90090 90090 90090 90090 90090
          90090 90090 90090 90090 90090 90090
          90090 99859.125 99777.375 99695.625 99613.875 99532.125
          99450.375 99368.625 99286.875 99205.125 99123.375 99041.625
          98959.875 98878.125 98796.375 98714.625 98632.875 98551.125
          98469.375 98387.625 98305.875 98224.125 98142.375 98060.625
          97978.875 97897.125 97815.375 97733.625 97651.875 97570.125
          97488.375 97406.625 97324.875 97243.125 97161.375 97079.625
          96997.875 96916.125 96834.375 96752.625 96670.875 96589.125
          96507.375 96425.625 96343.875 96262.125 96180.375 96098.625
          96016.875 95935.125 95853.375 95771.625 95689.875 95608.125
          95526.375 95444.625 95362.875 95281.125 95199.375 95117.625
          95035.875 94954.125 94872.375 94790.625 94708.875 94627.125
          94545.375 94463.625 94381.875 94300.125 94218.375 94136.625
          94054.875 93973.125 93891.375 93809.625 93727.875 93646.125
          93564.375 93482.625 93400.875 93319.125 93237.375 93155.625
          93073.875 92992.125 92910.375 92828.625 92746.875 92665.125
          92583.375 92501.625 92419.875 92338.125 92256.375 92174.625
          92092.875 92011.125 91929.375 91847.625 91765.875 91684.125
          91602.375 91520.625 91438.875 91357.125 91275.375 91193.625
          91111.875 91030.125 90948.375 90866.625 90784.875 90703.125
          90621.375 90539.625 90457.875 90376.125 90294.375 90212.625
          90130.875 99900 99818.25 99736.5 99654.75 99573
          99491.25 99409.5 99327.75 99246 99164.25 99082.5
          99000.75 98919 98837.25 98755.5 98673.75 98592
          98510.25 98428.5 98346.75 98265 98183.25 98101.5
          98019.75 97938 97856.25 97774.5 97692.75 97611
          97529.25 97447.5 97365.75 97284 97202.25 97120.5
          97038.75 96957 96875.25 96793.5 96711.75 96630
          96548.25 96466.5 96384.75 96303 96221.25 96139.5
          96057.75 95976 95894.25 95812.5 95730.75 95649
          95567.25 95485.5 95403.75 95322 95240.25 95158.5
          95076.75 94995 94913.25 94831.5 94749.75 94668
          94586.25 94504.5 94422.75 94341 94259.25 94177.5
          94095.75 94014 93932.25 93850.5 93768.75 93687
          93605.25 93523.5 93441.75 93360 93278.25 93196.5
          93114.75 93033 92951.25 92869.5 92787.75 92706
          92624.25 92542.5 92460.75 92379 92297.25 92215.5
          92133.75 92052 91970.25 91888.5 91806.75 91725
          91643.25 91561.5 91479.75 91398 91316.25 91234.5
          91152.75 91071 90989.25 90907.5 90825.75 90744
          90662.25 90580.5 90498.75 90417 90335.25 90253.5
          90171.75 90090 99859.125 99777.375 99695.625 99613.875
          99532.125 99450.375 99368.625 99286.875 99205.125 99123.375
          99041.625 98959.875 98878.125 98796.375 98714.625 98632.875
          98551.125 98469.375 98387.625 98305.875 98224.125 98142.375
          98060.625 97978.875 97897.125 97815.375 97733.625 97651.875
          97570.125 97488.375 97406.625 97324.875 97243.125 97161.375
          97079.625 96997.875 96916.125 96834.375 96752.625 96670.875
          96589.125 96507.375 96425.625 96343.875 96262.125 96180.375
          96098.625 96016.875 95935.125 95853.375 95771.625 95689.875
          95608.125 95526.375 95444.625 95362.875 95281.125 95199.375
          95117.625 95035.875 94954.125 94872.375 94790.625 94708.875
          94627.125 94545.375 94463.625 94381.875 94300.125 94218.375
          94136.625 94054.875 93973.125 93891.375 93809.625 93727.875
          93646.125 93564.375 93482.625 93400.875 93319.125 93237.375
          93155.625 93073.875 92992.125 92910.375 92828.625 92746.875
          92665.125 92583.375 92501.625 92419.875 92338.125 92256.375
          92174.625 92092.875 92011.125 91929.375 91847.625 91765.875
          91684.125 91602.375 91520.625 91438.875 91357.125 91275.375
          91193.625 91111.875 91030.125 90948.375 90866.625 90784.875
          90703.125 90621.375 90539.625 90457.875 90376.125 90294.375
          90212.625 90130.875 99900 99818.25 99736.5 99654.75
          99573 99491.25 99409.5 99327.75 99246 99164.25
          99082.5 99000.75 98919 98837.25 98755.5 98673.75
          98592 98510.25 98428.5 98346.75 98265 98183.25
          98101.5 98019.75 97938 97856.25 97774.5 97692.75
          97611 97529.25 97447.5 97365.75 97284 97202.25
          97120.5 97038.75 96957 96875.25 96793.5 96711.75
          96630 96548.25 96466.5 96384.75 96303 96221.25
          96139.5 96057.75 95976 95894.25 95812.5 95730.75
          95649 95567.25 95485.5 95403.75 95322 95240.25
          95158.5 95076.75 94995 94913.25 94831.5 94749.75
          94668 94586.25 94504.5 94422.75 94341 94259.25
          94177.5 94095.75 94014 93932.25 93850.5 93768.75
          93687 93605.25 93523.5 93441.75 93360 93278.25
          93196.5 93114.75 93033 92951.25 92869.5 92787.75
          92706 92624.25 92542.5 92460.75 92379 92297.25
          92215.5 92133.75 92052 91970.25 91888.5 91806.75
          91725 91643.25 91561.5 91479.75 91398 91316.25
          91234.5 91152.75 91071 90989.25 90907.5 90825.75
          90744 90662.25 90580.5 90498.75 90417 90335.25
          90253.5 90171.75 90090 99859.125 99777.375 99695.625
          99613.875 99532.125 99450.375 99368.625 99286.875 99205.125
          99123.375 99041.625 98959.875 98878.125 98796.375 98714.625
          98632.875 98551.125 98469.375 98387.625 98305.875 98224.125
          98142.375 98060.625 97978.875 97897.125 97815.375 97733.625
          97651.875 97570.125 97488.375 97406.625 97324.875 97243.125
          97161.375 97079.625 96997.875 96916.125 96834.375 96752.625
          96670.875 96589.125 96507.375 96425.625 96343.875 96262.125
          96180.375 96098.625 96016.875 95935.125 95853.375 95771.625
          95689.875 95608.125 95526.375 95444.625 95362.875 95281.125
          95199.375 95117.625 95035.875 94954.125 94872.375 94790.625
          94708.875 94627.125 94545.375 94463.625 94381.875 94300.125
          94218.375 94136.625 94054.875 93973.125 93891.375 93809.625
          93727.875 93646.125 93564.375 93482.625 93400.875 93319.125
          93237.375 93155.625 93073.875 92992.125 92910.375 92828.625
          92746.875 92665.125 92583.375 92501.625 92419.875 92338.125
          92256.375 92174.625 92092.875 92011.125 91929.375 91847.625
          91765.875 91684.125 91602.375 91520.625 91438.875 91357.125
          91275.375 91193.625 91111.875 91030.125 90948.375 90866.625
          90784.875 90703.125 90621.375 90539.625 90457.875 90376.125
          90294.375 90212.625 90130.875 99900 99818.25 99736.5
          99654.75 99573 99491.25 99409.5 99327.75 99246
          99164.25 99082.5 99000.75 98919 98837.25 98755.5
          98673.75 98592 98510.25 98428.5 98346.75 98265
          98183.25 98101.5 98019.75 97938 97856.25 97774.5
          97692.75 97611 97529.25 97447.5 97365.75 97284
          97202.25 97120.5 97038.75 96957 96875.25 96793.5
          96711.75 96630 96548.25 96466.5 96384.75 96303
          96221.25 96139.5 96057.75 95976 95894.25 95812.5
          95730.75 95649 95567.25 95485.5 95403.75 95322
          95240.25 95158.5 95076.75 94995 94913.25 94831.5
          94749.75 94668 94586.25 94504.5 94422.75 94341
          94259.25 94177.5 94095.75 94014 93932.25 93850.5
          93768.75 93687 93605.25 93523.5 93441.75 93360
          93278.25 93196.5 93114.75 93033 92951.25 92869.5
          92787.75 92706 92624.25 92542.5 92460.75 92379
          92297.25 92215.5 92133.75 92052 91970.25 91888.5
          91806.75 91725 91643.25 91561.5 91479.75 91398
          91316.25 91234.5 91152.75 91071 90989.25 90907.5
          90825.75 90744 90662.25 90580.5 90498.75 90417
          90335.25 90253.5 90171.75 90090 99859.125 99777.375
          99695.625 99613.875 99532.125 99450.375 99368.625 99286.875
          99205.125 99123.375 99041.625 98959.875 98878.125 98796.375
          98714.625 98632.875 98551.125 98469.375 98387.625 98305.875
          98224.125 98142.375 98060.625 97978.875 97897.125 97815.375
          97733.625 97651.875 97570.125 97488.375 97406.625 97324.875
          97243.125 97161.375 97079.625 96997.875 96916.125 96834.375
          96752.625 96670.875 96589.125 96507.375 96425.625 96343.875
          96262.125 96180.375 96098.625 96016.875 95935.125 95853.375
          95771.625 95689.875 95608.125 95526.375 95444.625 95362.875
          95281.125 95199.375 95117.625 95035.875 94954.125 94872.375
          94790.625 94708.875 94627.125 94545.375 94463.625 94381.875
          94300.125 94218.375 94136.625 94054.875 93973.125 93891.375
          93809.625 93727.875 93646.125 93564.375 93482.625 93400.875
          93319.125 93237.375 93155.625 93073.875 92992.125 92910.375
          92828.625 92746.875 92665.125 92583.375 92501.625 92419.875
          92338.125 92256.375 92174.625 92092.875 92011.125 91929.375
          91847.625 91765.875 91684.125 91602.375 91520.625 91438.875
          91357.125 91275.375 91193.625 91111.875 91030.125 90948.375
          90866.625 90784.875 90703.125 90621.375 90539.625 90457.875
          90376.125 90294.375 90212.625 90130.875 99900 99818.25
          99736.5 99654.75 99573 99491.25 99409.5 99327.75
          99246 99164.25 99082.5 99000.75 98919 98837.25
          98755.5 98673.75 98592 98510.25 98428.5 98346.75
          98265 98183.25 98101.5 98019.75 97938 97856.25
          97774.5 97692.75 97611 97529.25 97447.5 97365.75
          97284 97202.25 97120.5 97038.75 96957 96875.25
          96793.5 96711.75 96630 96548.25 96466.5 96384.75
          96303 96221.25 96139.5 96057.75 95976 95894.25
          95812.5 95730.75 95649 95567.25 95485.5 95403.75
          95322 95240.25 95158.5 95076.75 94995 94913.25
          94831.5 94749.75 94668 94586.25 94504.5 94422.75
          94341 94259.25 94177.5 94095.75 94014 93932.25
          93850.5 93768.75 93687 93605.25 93523.5 93441.75
          93360 93278.25 93196.5 93114.75 93033 92951.25
          92869.5 92787.75 92706 92624.25 92542.5 92460.75
          92379 92297.25 92215.5 92133.75 92052 91970.25
          91888.5 91806.75 91725 91643.25 91561.5 91479.75
          91398 91316.25 91234.5 91152.75 91071 90989.25
          90907.5 90825.75 90744 90662.25 90580.5 90498.75
          90417 90335.25 90253.5 90171.75 90090 99859.125
          99777.375 99695.625 99613.875 99532.125 99450.375 99368.625
          99286.875 99205.125 99123.375 99041.625 98959.875 98878.125
          98796.375 98714.625 98632.875 98551.125 98469.375 98387.625
          98305.875 98224.125 98142.375 98060.625 97978.875 97897.125
          97815.375 97733.625 97651.875 97570.125 97488.375 97406.625
          97324.875 97243.125 97161.375 97079.625 96997.875 96916.125
          96834.375 96752.625 96670.875 96589.125 96507.375 96425.625
          96343.875 96262.125 96180.375 96098.625 96016.875 95935.125
          95853.375 95771.625 95689.875 95608.125 95526.375 95444.625
          95362.875 95281.125 95199.375 95117.625 95035.875 94954.125
          94872.375 94790.625 94708.875 94627.125 94545.375 94463.625
          94381.875 94300.125 94218.375 94136.625 94054.875 93973.125
          93891.375 93809.625 93727.875 93646.125 93564.375 93482.625
          93400.875 93319.125 93237.375 93155.625 93073.875 92992.125
          92910.375 92828.625 92746.875 92665.125 92583.375 92501.625
          92419.875 92338.125 92256.375 92174.625 92092.875 92011.125
          91929.375 91847.625 91765.875 91684.125 91602.375 91520.625
          91438.875 91357.125 91275.375 91193.625 91111.875 91030.125
          90948.375 90866.625 90784.875 90703.125 90621.375 90539.625
          90457.875 90376.125 90294.375 90212.625 90130.875 99900
          99818.25 99736.5 99654.75 99573 99491.25 99409.5
          99327.75 99246 99164.25 99082.5 99000.75 98919
          98837.25 98755.5 98673.75 98592 98510.25 98428.5
          98346.75 98265 98183.25 98101.5 98019.75 97938
          97856.25 97774.5 97692.75 97611 97529.25 97447.5
          97365.75 97284 97202.25 97120.5 97038.75 96957
          96875.25 96793.5 96711.75 96630 96548.25 96466.5
          96384.75 96303 96221.25 96139.5 96057.75 95976
          95894.25 95812.5 95730.75 95649 95567.25 95485.5
          95403.75 95322 95240.25 95158.5 95076.75 94995
          94913.25 94831.5 94749.75 94668 94586.25 94504.5
          94422.75 94341 94259.25 94177.5 94095.75 94014
          93932.25 93850.5 93768.75 93687 93605.25 93523.5
          93441.75 93360 93278.25 93196.5 93114.75 93033
          92951.25 92869.5 92787.75 92706 92624.25 92542.5
          92460.75 92379 92297.25 92215.5 92133.75 92052
          91970.25 91888.5 91806.75 91725 91643.25 91561.5
          91479.75 91398 91316.25 91234.5 91152.75 91071
          90989.25 90907.5 90825.75 90744 90662.25 90580.5
          90498.75 90417 90335.25 90253.5 90171.75 90090
          99859.125 99777.375 99695.625 99613.875 99532.125 99450.375
          99368.625 99286.875 99205.125 99123.375 99041.625 98959.875
          98878.125 98796.375 98714.625 98632.875 98551.125 98469.375
          98387.625 98305.875 98224.125 98142.375 98060.625 97978.875
          97897.125 97815.375 97733.625 97651.875 97570.125 97488.375
          97406.625 97324.875 97243.125 97161.375 97079.625 96997.875
          96916.125 96834.375 96752.625 96670.875 96589.125 96507.375
          96425.625 96343.875 96262.125 96180.375 96098.625 96016.875
          95935.125 95853.375 95771.625 95689.875 95608.125 95526.375
          95444.625 95362.875 95281.125 95199.375 95117.625 95035.875
          94954.125 94872.375 94790.625 94708.875 94627.125 94545.375
          94463.625 94381.875 94300.125 94218.375 94136.625 94054.875
          93973.125 93891.375 93809.625 93727.875 93646.125 93564.375
          93482.625 93400.875 93319.125 93237.375 93155.625 93073.875
          92992.125 92910.375 92828.625 92746.875 92665.125 92583.375
          92501.625 92419.875 92338.125 92256.375 92174.625 92092.875
          92011.125 91929.375 91847.625 91765.875 91684.125 91602.375
          91520.625 91438.875 91357.125 91275.375 91193.625 91111.875
          91030.125 90948.375 90866.625 90784.875 90703.125 90621.375
          90539.625 90457.875 90376.125 90294.375 90212.625 90130.875
          99900 99818.25 99736.5 99654.75 99573 99491.25
          99409.5 99327.75 99246 99164.25 99082.5 99000.75
          98919 98837.25 98755.5 98673.75 98592 98510.25
          98428.5 98346.75 98265 98183.25 98101.5 98019.75